LAMMPS description

17      atoms
17      bonds
17      angles
17      dihedrals
17      impropers

2       atom types
2       bond types
2       angle types
2       dihedral types
2       improper types

-6.336000 6.336000 xlo xhi
-6.020000 6.020000 ylo yhi
-6.345000 6.345000 zlo zhi

Atoms

1 1 1 -1.4930  0.0800 -0.4800 # A
2 2 1  0.3830 -0.2310  1.5050 # A
3 3 1 -1.2650  0.2840  0.6210 # A
4 4 1 -0.6590 -0.5450  1.1550 # A
5 5 1  0.6250 -0.2290 -1.1850 # A
6 6 1  1.1790  0.4740 -0.4820 # A
7 7 1  0.1990  0.7970 -0.9760 # A
8 8 2  1.0930 -0.6220 -0.2170 # B
9 9 2  0.0750 -0.9870 -0.5580 # B
10 10 2  0.4120  1.0530  0.1080 # B
11 11 2 -0.5000 -0.1020 -0.9990 # B
12 12 2  0.9370  0.1610  0.5960 # B
13 13 2 -0.6220  0.6970 -0.2050 # B
14 14 2  0.2610 -0.7460  0.5380 # B
15 15 2 -0.6920 -0.4520  0.0520 # B
16 16 2  0.1640  0.3360  0.7390 # B
17 17 2  0.2300  0.0310 -0.2130 # B

Bonds

1 1 1 1 # A A
2 1 2 2 # A A
3 1 3 3 # A A
4 1 4 4 # A A
5 1 5 5 # A A
6 1 6 6 # A A
7 1 7 7 # A A
8 2 8 8 # B B
9 2 9 9 # B B
10 2 10 10 # B B
11 2 11 11 # B B
12 2 12 12 # B B
13 2 13 13 # B B
14 2 14 14 # B B
15 2 15 15 # B B
16 2 16 16 # B B
17 2 17 17 # B B

Angles

1 1 1 1 1 # A A A
2 1 2 2 2 # A A A
3 1 3 3 3 # A A A
4 1 4 4 4 # A A A
5 1 5 5 5 # A A A
6 1 6 6 6 # A A A
7 1 7 7 7 # A A A
8 2 8 8 8 # B B B
9 2 9 9 9 # B B B
10 2 10 10 10 # B B B
11 2 11 11 11 # B B B
12 2 12 12 12 # B B B
13 2 13 13 13 # B B B
14 2 14 14 14 # B B B
15 2 15 15 15 # B B B
16 2 16 16 16 # B B B
17 2 17 17 17 # B B B

Dihedrals

1 1 1 1 1 1 # A A A A
2 1 2 2 2 2 # A A A A
3 1 3 3 3 3 # A A A A
4 1 4 4 4 4 # A A A A
5 1 5 5 5 5 # A A A A
6 1 6 6 6 6 # A A A A
7 1 7 7 7 7 # A A A A
8 2 8 8 8 8 # B B B B
9 2 9 9 9 9 # B B B B
10 2 10 10 10 10 # B B B B
11 2 11 11 11 11 # B B B B
12 2 12 12 12 12 # B B B B
13 2 13 13 13 13 # B B B B
14 2 14 14 14 14 # B B B B
15 2 15 15 15 15 # B B B B
16 2 16 16 16 16 # B B B B
17 2 17 17 17 17 # B B B B

Impropers

1 1 1 1 1 1 # A A A A
2 1 2 2 2 2 # A A A A
3 1 3 3 3 3 # A A A A
4 1 4 4 4 4 # A A A A
5 1 5 5 5 5 # A A A A
6 1 6 6 6 6 # A A A A
7 1 7 7 7 7 # A A A A
8 2 8 8 8 8 # B B B B
9 2 9 9 9 9 # B B B B
10 2 10 10 10 10 # B B B B
11 2 11 11 11 11 # B B B B
12 2 12 12 12 12 # B B B B
13 2 13 13 13 13 # B B B B
14 2 14 14 14 14 # B B B B
15 2 15 15 15 15 # B B B B
16 2 16 16 16 16 # B B B B
17 2 17 17 17 17 # B B B B
